 Gaussian 16, Revision A.03,
 Gaussian 16:  ES64L-G16RevA.03 25-Dec-2016

 --------------------
 # wb97xd/aug-cc-pvtz
 --------------------

 ------
 Title1
 ------
 Symbolic Z-matrix:
 Charge =  0 Multiplicity = 1

                         Standard orientation:
 ---------------------------------------------------------------------
 Center     Atomic      Atomic             Coordinates (Angstroms)
 Number     Number       Type             X           Y           Z
 ---------------------------------------------------------------------
      1         14           0        1.214359   -2.620197   -0.000000
      2         14           0       -0.000000    1.387288    0.000000
      3         14           0       -1.214359    1.232910    0.000000
 ---------------------------------------------------------------------

 SCF Done:  E(RwB97XD) =  -867.253829568     A.U. after  109 cycles

 The electronic state is 1-A'.
 Alpha  occ. eigenvalues --  -66.34704 -66.32922 -66.32863  -5.54344  -5.46054
 Alpha  occ. eigenvalues --   -5.44700  -3.95033  -3.82963  -3.82953  -3.80064
 Alpha  occ. eigenvalues --   -3.80054  -3.79607  -3.79607  -3.78480  -3.77949
 Alpha  occ. eigenvalues --   -0.65544  -0.51549  -0.36583  -0.36551  -0.35548
 Alpha  occ. eigenvalues --   -0.23329
 Alpha virt. eigenvalues --   -0.05712  -0.05555  -0.02649   0.04577   0.05140
 Alpha virt. eigenvalues --    0.05731   0.05885   0.06448   0.06455   0.07620
 Alpha virt. eigenvalues --    0.08146   0.08441   0.08985   0.10265   0.10738

 Mulliken charges:
               1
     1  Si   0.025139
     2  Si  -0.054247
     3  Si   0.029108
 Sum of Mulliken charges =  -0.00000

 Dipole moment (field-independent basis, Debye):
    X=             -0.1324    Y=             -0.1731    Z=              0.0000  Tot=              0.2180
 Quadrupole moment (field-independent basis, Debye-Ang):
   XX=            -37.3266   YY=            -43.2167   ZZ=            -36.7989
   XY=              5.8219   XZ=              0.0000   YZ=             -0.0000

 Normal termination of Gaussian 16 at Sat May 18 08:25:07 2024.
