 Gaussian 16, Revision A.03,
 Gaussian 16:  ES64L-G16RevA.03 25-Dec-2016

 --------------------
 # wb97xd/aug-cc-pvtz
 --------------------

 ------
 Title3
 ------
 Symbolic Z-matrix:
 Charge =  0 Multiplicity = 1

                         Standard orientation:
 ---------------------------------------------------------------------
 Center     Atomic      Atomic             Coordinates (Angstroms)
 Number     Number       Type             X           Y           Z
 ---------------------------------------------------------------------
      1         14           0        0.940905   -2.042025    0.000000
      2         14           0        0.000000    1.080170   -0.000000
      3         14           0       -0.940905    0.961855   -0.000000
 ---------------------------------------------------------------------

 SCF Done:  E(RwB97XD) =  -865.641056824     A.U. after   19 cycles

 The electronic state is 1-A'.
 Alpha  occ. eigenvalues --  -66.51776 -66.51701 -66.34179  -6.05811  -5.58591
 Alpha  occ. eigenvalues --   -5.44151  -4.34020  -4.12467  -4.12423  -3.97932
 Alpha  occ. eigenvalues --   -3.97898  -3.83459  -3.79052  -3.79014  -3.77448
 Alpha  occ. eigenvalues --   -0.69139  -0.51692  -0.43155  -0.42873  -0.36641
 Alpha  occ. eigenvalues --   -0.23025
 Alpha virt. eigenvalues --   -0.05218  -0.04081   0.00119   0.04628   0.04715
 Alpha virt. eigenvalues --    0.05853   0.06311   0.06346   0.06709   0.07938
 Alpha virt. eigenvalues --    0.08128   0.08491   0.08721   0.10616   0.11000

 Mulliken charges:
               1
     1  Si  -0.121325
     2  Si   0.536325
     3  Si  -0.414999
 Sum of Mulliken charges =  -0.00000

 Dipole moment (field-independent basis, Debye):
    X=             -0.2039    Y=              0.5621    Z=             -0.0000  Tot=              0.5979
 Quadrupole moment (field-independent basis, Debye-Ang):
   XX=            -41.0819   YY=            -37.5515   ZZ=            -35.3441
   XY=             -3.3228   XZ=             -0.0000   YZ=             -0.0000

 Normal termination of Gaussian 16 at Sat May 18 08:31:11 2024.
