 Gaussian 16, Revision A.03,
 Gaussian 16:  ES64L-G16RevA.03 25-Dec-2016

 --------------------
 # wb97xd/aug-cc-pvtz
 --------------------

 ------
 Title2
 ------
 Symbolic Z-matrix:
 Charge =  0 Multiplicity = 1

                         Standard orientation:
 ---------------------------------------------------------------------
 Center     Atomic      Atomic             Coordinates (Angstroms)
 Number     Number       Type             X           Y           Z
 ---------------------------------------------------------------------
      1         14           0        6.618551    0.034058   -0.632255
      2         14           0       -3.457811    3.792478   -0.773013
      3         14           0       -0.331221   -2.570196    0.474915
      4         14           0        1.259282    2.188050    0.851472
      5         14           0       -1.455349    0.179058    0.682853
      6         14           0       -2.633452   -3.623448   -0.603972
 ---------------------------------------------------------------------

 SCF Done:  E(RwB97XD) =  -1736.23430388     A.U. after  115 cycles

 The electronic state is 1-A.
 Alpha  occ. eigenvalues --  -66.39773 -66.35781 -66.35196 -66.34592 -66.33757
 Alpha  occ. eigenvalues --  -66.29686  -5.49475  -5.45739  -5.45122  -5.44242
 Alpha  occ. eigenvalues --   -5.43587  -5.39531  -3.84315  -3.84248  -3.82951
 Alpha  occ. eigenvalues --   -3.80644  -3.80644  -3.80023  -3.79991  -3.78997
 Alpha  occ. eigenvalues --   -3.78840  -3.78799  -3.78459  -3.78422  -3.78211
 Alpha  occ. eigenvalues --   -3.78009  -3.77400  -3.74076  -3.73924  -3.73715
 Alpha  occ. eigenvalues --   -0.56268  -0.54727  -0.52404  -0.51736  -0.50391
 Alpha  occ. eigenvalues --   -0.44476  -0.28126  -0.26316  -0.24430  -0.24406
 Alpha  occ. eigenvalues --   -0.23616  -0.22584
 Alpha virt. eigenvalues --   -0.09327  -0.08499  -0.06517  -0.06317  -0.06284
 Alpha virt. eigenvalues --   -0.05762  -0.05012  -0.04479  -0.01457  -0.00324
 Alpha virt. eigenvalues --    0.03449   0.03659   0.04577   0.04928   0.05639

 Mulliken charges:
               1
     1  Si   0.010633
     2  Si  -0.001317
     3  Si  -0.185000
     4  Si   0.189127
     5  Si  -0.031722
     6  Si   0.018279
 Sum of Mulliken charges =  -0.00000

 Dipole moment (field-independent basis, Debye):
    X=              2.3422    Y=              3.3650    Z=              0.4584  Tot=              4.1255
 Quadrupole moment (field-independent basis, Debye-Ang):
   XX=            -88.0575   YY=            -83.8231   ZZ=            -79.8745
   XY=              0.3909   XZ=              2.3702   YZ=              2.5551

 Normal termination of Gaussian 16 at Sat May 18 17:26:35 2024.
