 Gaussian 16, Revision A.03,
 Gaussian 16:  ES64L-G16RevA.03 25-Dec-2016

 --------------------
 # wb97xd/aug-cc-pvtz
 --------------------

 ------
 Title0
 ------
 Symbolic Z-matrix:
 Charge =  0 Multiplicity = 1

                         Standard orientation:
 ---------------------------------------------------------------------
 Center     Atomic      Atomic             Coordinates (Angstroms)
 Number     Number       Type             X           Y           Z
 ---------------------------------------------------------------------
      1         14           0        1.348935   -2.907054    0.000000
      2         14           0       -0.000000    1.539076    0.000000
      3         14           0       -1.348935    1.367978    0.000000
 ---------------------------------------------------------------------

 SCF Done:  E(RwB97XD) =  -867.632816564     A.U. after   80 cycles

 The electronic state is 1-A'.
 Alpha  occ. eigenvalues --  -66.34818 -66.29344 -66.29327  -5.46101  -5.44799
 Alpha  occ. eigenvalues --   -5.42636  -3.85138  -3.79706  -3.79706  -3.78051
 Alpha  occ. eigenvalues --   -3.77649  -3.77643  -3.76339  -3.76338  -3.76310
 Alpha  occ. eigenvalues --   -0.66312  -0.51559  -0.36531  -0.34618  -0.34574
 Alpha  occ. eigenvalues --   -0.23454
 Alpha virt. eigenvalues --   -0.05977  -0.05555  -0.05119   0.04486   0.05205
 Alpha virt. eigenvalues --    0.05250   0.05492   0.05991   0.06470   0.07519
 Alpha virt. eigenvalues --    0.08143   0.08382   0.08742   0.09579   0.10169

 Mulliken charges:
               1
     1  Si   0.021373
     2  Si  -0.046234
     3  Si   0.024861
 Sum of Mulliken charges =  -0.00000

 Dipole moment (field-independent basis, Debye):
    X=             -0.1262    Y=             -0.2098    Z=              0.0000  Tot=              0.2448
 Quadrupole moment (field-independent basis, Debye-Ang):
   XX=            -37.7423   YY=            -42.1570   ZZ=            -37.5371
   XY=              5.7370   XZ=              0.0000   YZ=             -0.0000

 Normal termination of Gaussian 16 at Sat May 18 08:12:30 2024.
