 Gaussian 16, Revision A.03,
 Gaussian 16:  ES64L-G16RevA.03 25-Dec-2016

 --------------------
 # wb97xd/aug-cc-pvtz
 --------------------

 ------
 Title6
 ------
 Symbolic Z-matrix:
 Charge =  0 Multiplicity = 1

                         Standard orientation:
 ---------------------------------------------------------------------
 Center     Atomic      Atomic             Coordinates (Angstroms)
 Number     Number       Type             X           Y           Z
 ---------------------------------------------------------------------
      1         14           0        3.975481    0.020456   -0.381039
      2         14           0       -2.076060    2.272538   -0.465760
      3         14           0       -0.194766   -1.540485    0.285297
      4         14           0        0.756418    1.310800    0.514253
      5         14           0       -0.877285    0.109289    0.409449
      6         14           0       -1.583787   -2.172599   -0.362201
 ---------------------------------------------------------------------

 SCF Done:  E(RwB97XD) =  -1736.31824058     A.U. after   47 cycles

 The electronic state is 1-A.
 Alpha  occ. eigenvalues --  -66.37002 -66.33741 -66.31390 -66.29002 -66.28508
 Alpha  occ. eigenvalues --  -66.26399  -5.46787  -5.43676  -5.42070  -5.41408
 Alpha  occ. eigenvalues --   -5.41125  -5.40541  -3.81546  -3.81210  -3.80708
 Alpha  occ. eigenvalues --   -3.78583  -3.78505  -3.77012  -3.76685  -3.76488
 Alpha  occ. eigenvalues --   -3.76374  -3.76219  -3.76044  -3.75710  -3.75533
 Alpha  occ. eigenvalues --   -3.75183  -3.74947  -3.74652  -3.74476  -3.74350
 Alpha  occ. eigenvalues --   -0.77019  -0.64381  -0.54724  -0.50848  -0.47796
 Alpha  occ. eigenvalues --   -0.42627  -0.39034  -0.35381  -0.31404  -0.27712
 Alpha  occ. eigenvalues --   -0.27219  -0.22375
 Alpha virt. eigenvalues --   -0.08800  -0.07209  -0.05161  -0.04768  -0.01625
 Alpha virt. eigenvalues --   -0.00529   0.00743   0.01542   0.03865   0.04164
 Alpha virt. eigenvalues --    0.04576   0.04839   0.05311   0.05935   0.06321

 Mulliken charges:
               1
     1  Si  -0.060010
     2  Si   0.004962
     3  Si  -0.072026
     4  Si  -0.364336
     5  Si   0.841110
     6  Si  -0.349700
 Sum of Mulliken charges =  -0.00000

 Dipole moment (field-independent basis, Debye):
    X=             -1.9310    Y=              0.4625    Z=             -0.4030  Tot=              2.0261
 Quadrupole moment (field-independent basis, Debye-Ang):
   XX=            -81.3388   YY=            -81.4543   ZZ=            -76.1421
   XY=            -10.6577   XZ=              2.5977   YZ=              0.2420

 Normal termination of Gaussian 16 at Sat May 18 22:16:49 2024.
