 Gaussian 16, Revision A.03,
 Gaussian 16:  ES64L-G16RevA.03 25-Dec-2016

 --------------------
 # wb97xd/aug-cc-pvtz
 --------------------

 ------
 Title2
 ------
 Symbolic Z-matrix:
 Charge =  0 Multiplicity = 2

                         Standard orientation:
 ---------------------------------------------------------------------
 Center     Atomic      Atomic             Coordinates (Angstroms)
 Number     Number       Type             X           Y           Z
 ---------------------------------------------------------------------
      1          1           0        4.561452   -0.615746    0.000000
      2          1           0       -4.561452   -3.234833    0.000000
      3          1           0       -0.000000    3.850579   -0.000000
 ---------------------------------------------------------------------

 SCF Done:  E(UwB97XD) =  -1.50840673090     A.U. after   16 cycles

 The electronic state is 2-A'.
 Alpha  occ. eigenvalues --   -0.40625  -0.40625
 Alpha virt. eigenvalues --    0.05155   0.05855   0.13319   0.19395   0.19395
 Alpha virt. eigenvalues --    0.19396   0.19396   0.19397   0.19923   0.41731
 Alpha virt. eigenvalues --    0.42258   0.49991   0.50486   0.50763   0.52226

  Beta  occ. eigenvalues --   -0.40625
  Beta virt. eigenvalues --    0.05625   0.13045   0.13561   0.19396   0.19417
  Beta virt. eigenvalues --    0.19890   0.39842   0.42068   0.46355   0.46431
  Beta virt. eigenvalues --    0.47531   0.48038   0.48662   0.48758   0.50047

 Mulliken charges and spin densities:
               1          2
     1  H    0.000000   1.000067
     2  H    0.000000   1.000004
     3  H   -0.000000  -1.000070
 Sum of Mulliken charges =  -0.00000   1.00000

 Dipole moment (field-independent basis, Debye):
    X=             -0.0000    Y=             -0.0000    Z=              0.0000  Tot=              0.0000
 Quadrupole moment (field-independent basis, Debye-Ang):
   XX=             -4.2624   YY=             -4.2624   ZZ=             -4.2602
   XY=              0.0018   XZ=             -0.0000   YZ=              0.0000

 Normal termination of Gaussian 16 at Sat May 18 08:00:30 2024.
