 Gaussian 16, Revision A.03,
 Gaussian 16:  ES64L-G16RevA.03 25-Dec-2016

 --------------------
 # wb97xd/aug-cc-pvtz
 --------------------

 ------
 Title3
 ------
 Symbolic Z-matrix:
 Charge =  0 Multiplicity = 2

                         Standard orientation:
 ---------------------------------------------------------------------
 Center     Atomic      Atomic             Coordinates (Angstroms)
 Number     Number       Type             X           Y           Z
 ---------------------------------------------------------------------
      1          1           0        4.103565   -0.547537   -0.000000
      2          1           0       -4.103565   -2.915830    0.000000
      3          1           0        0.000000    3.463367   -0.000000
 ---------------------------------------------------------------------

 SCF Done:  E(UwB97XD) =  -1.50839808803     A.U. after   17 cycles

 The electronic state is 2-A'.
 Alpha  occ. eigenvalues --   -0.40625  -0.40623
 Alpha virt. eigenvalues --    0.05109   0.06189   0.13054   0.19394   0.19395
 Alpha virt. eigenvalues --    0.19396   0.19397   0.19408   0.20347   0.41682
 Alpha virt. eigenvalues --    0.42516   0.50454   0.50473   0.50608   0.52775

  Beta  occ. eigenvalues --   -0.40623
  Beta virt. eigenvalues --    0.05880   0.12793   0.13727   0.19397   0.19495
  Beta virt. eigenvalues --    0.20250   0.42232   0.46311   0.48359   0.48361
  Beta virt. eigenvalues --    0.49274   0.49458   0.49469   0.50261   0.51067

 Mulliken charges and spin densities:
               1          2
     1  H    0.000001   1.000148
     2  H    0.000000   1.000013
     3  H   -0.000001  -1.000161
 Sum of Mulliken charges =  -0.00000   1.00000

 Dipole moment (field-independent basis, Debye):
    X=             -0.0000    Y=             -0.0000    Z=              0.0000  Tot=              0.0000
 Quadrupole moment (field-independent basis, Debye-Ang):
   XX=             -4.2647   YY=             -4.2647   ZZ=             -4.2595
   XY=              0.0042   XZ=              0.0000   YZ=             -0.0000

 Normal termination of Gaussian 16 at Sat May 18 08:00:34 2024.
