 Gaussian 16, Revision A.03,
 Gaussian 16:  ES64L-G16RevA.03 25-Dec-2016

 --------------------
 # wb97xd/aug-cc-pvtz
 --------------------

 ------
 Title7
 ------
 Symbolic Z-matrix:
 Charge =  0 Multiplicity = 1

                         Standard orientation:
 ---------------------------------------------------------------------
 Center     Atomic      Atomic             Coordinates (Angstroms)
 Number     Number       Type             X           Y           Z
 ---------------------------------------------------------------------
      1         14           0        3.311822    0.006872   -0.316731
      2         14           0       -1.720131    1.894708   -0.389016
      3         14           0       -0.170326   -1.275723    0.239138
      4         14           0        0.634340    1.086664    0.425252
      5         14           0       -0.729323    0.097683    0.344402
      6         14           0       -1.326383   -1.810204   -0.303045
 ---------------------------------------------------------------------

 SCF Done:  E(RwB97XD) =  -1735.55697593     A.U. after   68 cycles

 The electronic state is 1-A.
 Alpha  occ. eigenvalues --  -66.33498 -66.32920 -66.30779 -66.30433 -66.29390
 Alpha  occ. eigenvalues --  -66.27175  -5.50215  -5.45261  -5.43905  -5.43761
 Alpha  occ. eigenvalues --   -5.42821  -5.41658  -3.87391  -3.84571  -3.81879
 Alpha  occ. eigenvalues --   -3.78836  -3.78760  -3.78587  -3.78503  -3.78345
 Alpha  occ. eigenvalues --   -3.78206  -3.77852  -3.77747  -3.77628  -3.77403
 Alpha  occ. eigenvalues --   -3.77111  -3.76387  -3.76030  -3.75762  -3.75646
 Alpha  occ. eigenvalues --   -0.85723  -0.70274  -0.58906  -0.51924  -0.48942
 Alpha  occ. eigenvalues --   -0.48013  -0.43219  -0.36419  -0.33084  -0.31543
 Alpha  occ. eigenvalues --   -0.28946  -0.22022
 Alpha virt. eigenvalues --   -0.07384  -0.06397  -0.04047  -0.02975   0.00499
 Alpha virt. eigenvalues --    0.02407   0.03416   0.03760   0.04155   0.04318
 Alpha virt. eigenvalues --    0.04468   0.05337   0.05968   0.06279   0.06603

 Mulliken charges:
               1
     1  Si  -0.153209
     2  Si  -0.210584
     3  Si   0.247607
     4  Si  -0.556251
     5  Si   1.723364
     6  Si  -1.050926
 Sum of Mulliken charges =  -0.00000

 Dipole moment (field-independent basis, Debye):
    X=             -2.0492    Y=             -0.2822    Z=             -0.1329  Tot=              2.0728
 Quadrupole moment (field-independent basis, Debye-Ang):
   XX=            -81.0935   YY=            -75.8925   ZZ=            -79.2861
   XY=             -2.3673   XZ=             -2.0629   YZ=              0.7958

 Normal termination of Gaussian 16 at Sun May 19 00:18:15 2024.
