 Gaussian 16, Revision A.03,
 Gaussian 16:  ES64L-G16RevA.03 25-Dec-2016

 --------------------
 # wb97xd/aug-cc-pvtz
 --------------------

 ------
 Title4
 ------
 Symbolic Z-matrix:
 Charge =  0 Multiplicity = 1

                         Standard orientation:
 ---------------------------------------------------------------------
 Center     Atomic      Atomic             Coordinates (Angstroms)
 Number     Number       Type             X           Y           Z
 ---------------------------------------------------------------------
      1         14           0        0.812874   -1.743503   -0.000000
      2         14           0       -0.000000    0.925455    0.000000
      3         14           0       -0.812874    0.818048    0.000000
 ---------------------------------------------------------------------

 SCF Done:  E(RwB97XD) =  -863.941680905     A.U. after   18 cycles

 The electronic state is 1-A'.
 Alpha  occ. eigenvalues --  -66.63266 -66.63078 -66.33341  -6.59417  -5.60101
 Alpha  occ. eigenvalues --   -5.43352  -4.55962  -4.37980  -4.37898  -4.07473
 Alpha  occ. eigenvalues --   -4.07426  -3.78254  -3.78130  -3.76724  -3.74646
 Alpha  occ. eigenvalues --   -0.73625  -0.53382  -0.45530  -0.43423  -0.37345
 Alpha  occ. eigenvalues --   -0.22581
 Alpha virt. eigenvalues --   -0.05060  -0.02278   0.00325   0.04594   0.04747
 Alpha virt. eigenvalues --    0.05882   0.06206   0.06287   0.07043   0.07857
 Alpha virt. eigenvalues --    0.08022   0.08231   0.08758   0.10891   0.11226

 Mulliken charges:
               1
     1  Si  -0.474954
     2  Si   1.748490
     3  Si  -1.273536
 Sum of Mulliken charges =  -0.00000

 Dipole moment (field-independent basis, Debye):
    X=             -0.2396    Y=              0.8433    Z=              0.0000  Tot=              0.8766
 Quadrupole moment (field-independent basis, Debye-Ang):
   XX=            -41.3875   YY=            -37.3602   ZZ=            -34.5426
   XY=             -2.4422   XZ=              0.0000   YZ=             -0.0000

 Normal termination of Gaussian 16 at Sat May 18 08:33:37 2024.
