 Gaussian 16, Revision A.03,
 Gaussian 16:  ES64L-G16RevA.03 25-Dec-2016

 --------------------
 # wb97xd/aug-cc-pvtz
 --------------------

 ------
 Title5
 ------
 Symbolic Z-matrix:
 Charge =  0 Multiplicity = 1

                         Standard orientation:
 ---------------------------------------------------------------------
 Center     Atomic      Atomic             Coordinates (Angstroms)
 Number     Number       Type             X           Y           Z
 ---------------------------------------------------------------------
      1         14           0        0.670229   -1.465429   -0.000000
      2         14           0        0.000000    0.774525    0.000000
      3         14           0       -0.670229    0.690904    0.000000
 ---------------------------------------------------------------------

 SCF Done:  E(RwB97XD) =  -859.964827761     A.U. after   18 cycles

 The electronic state is 1-A'.
 Alpha  occ. eigenvalues --  -66.78706 -66.78305 -66.32337  -7.60921  -5.53033
 Alpha  occ. eigenvalues --   -5.42587  -4.83908  -4.83782  -4.80766  -4.14367
 Alpha  occ. eigenvalues --   -4.14342  -3.77484  -3.77195  -3.76107  -3.28786
 Alpha  occ. eigenvalues --   -0.81434  -0.57508  -0.48544  -0.42762  -0.38055
 Alpha  occ. eigenvalues --   -0.22396
 Alpha virt. eigenvalues --   -0.05388  -0.00797   0.01104   0.04556   0.05215
 Alpha virt. eigenvalues --    0.05764   0.05934   0.06193   0.07295   0.07664
 Alpha virt. eigenvalues --    0.07685   0.08265   0.09212   0.11118   0.11703

 Mulliken charges:
               1
     1  Si  -0.424717
     2  Si   0.222506
     3  Si   0.202211
 Sum of Mulliken charges =  -0.00000

 Dipole moment (field-independent basis, Debye):
    X=              0.1694    Y=              0.7731    Z=             -0.0000  Tot=              0.7914
 Quadrupole moment (field-independent basis, Debye-Ang):
   XX=            -41.6949   YY=            -36.4711   ZZ=            -33.2467
   XY=             -0.6639   XZ=              0.0000   YZ=             -0.0000

 Normal termination of Gaussian 16 at Sat May 18 08:35:59 2024.
