 Gaussian 16, Revision A.03,
 Gaussian 16:  ES64L-G16RevA.03 25-Dec-2016

 --------------------
 # wb97xd/aug-cc-pvtz
 --------------------

 ------
 Title0
 ------
 Symbolic Z-matrix:
 Charge =  0 Multiplicity = 3

                         Standard orientation:
 ---------------------------------------------------------------------
 Center     Atomic      Atomic             Coordinates (Angstroms)
 Number     Number       Type             X           Y           Z
 ---------------------------------------------------------------------
      1          8           0       -2.189435    0.093674   -0.038001
      2          1           0       -2.707137   -0.181826    0.719485
      3          1           0       -1.881641   -0.674845   -0.516270
      4          8           0        2.131807   -0.065497    0.027051
      5          1           0        3.077365   -0.225716    0.070058
      6          1           0        1.972440    0.856973   -0.185672
 ---------------------------------------------------------------------

 SCF Done:  E(UwB97XD) =  -152.611475099     A.U. after   20 cycles

 The electronic state is 3-A.
 Alpha  occ. eigenvalues --  -19.50977 -19.26311  -1.34648  -1.12294  -0.81795
 Alpha  occ. eigenvalues --   -0.68541  -0.68080  -0.64098  -0.48084  -0.41318
 Alpha  occ. eigenvalues --   -0.17999
 Alpha virt. eigenvalues --    0.02228   0.02704   0.04385   0.07955   0.10001
 Alpha virt. eigenvalues --    0.11325   0.11921   0.12584   0.15047   0.16581
 Alpha virt. eigenvalues --    0.17499   0.19416   0.20226   0.21652   0.22966

  Beta  occ. eigenvalues --  -19.48198 -19.26307  -1.25800  -1.12285  -0.78725
  Beta  occ. eigenvalues --   -0.64251  -0.64086  -0.48080  -0.41303
  Beta virt. eigenvalues --   -0.24200   0.03240   0.06461   0.08252   0.13182
  Beta virt. eigenvalues --    0.14582   0.16138   0.17084   0.17621   0.19923
  Beta virt. eigenvalues --    0.21155   0.21656   0.21862   0.22315   0.25259

 Mulliken charges and spin densities:
               1          2
     1  O   -0.354986   0.006850
     2  H    0.179473  -0.001979
     3  H    0.180331  -0.009809
     4  O    0.047624   1.286615
     5  H   -0.030088   0.367253
     6  H   -0.022353   0.351069
 Sum of Mulliken charges =  -0.00000   2.00000

 Dipole moment (field-independent basis, Debye):
    X=             -1.7606    Y=             -2.2784    Z=              0.6451  Tot=              2.9507
 Quadrupole moment (field-independent basis, Debye-Ang):
   XX=            -24.3397   YY=            -19.1069   ZZ=            -16.8857
   XY=              1.5665   XZ=             -2.0275   YZ=              0.9539

 Normal termination of Gaussian 16 at Sat May 18 09:59:26 2024.
