 Gaussian 16, Revision A.03,
 Gaussian 16:  ES64L-G16RevA.03 25-Dec-2016

 --------------------
 # wb97xd/aug-cc-pvtz
 --------------------

 ------
 Title1
 ------
 Symbolic Z-matrix:
 Charge =  0 Multiplicity = 1

                         Standard orientation:
 ---------------------------------------------------------------------
 Center     Atomic      Atomic             Coordinates (Angstroms)
 Number     Number       Type             X           Y           Z
 ---------------------------------------------------------------------
      1         14           0        7.287195    0.030196   -0.694303
      2         14           0       -3.797268    4.167457   -0.853178
      3         14           0       -0.369351   -2.823396    0.524595
      4         14           0        1.387254    2.403483    0.933334
      5         14           0       -1.606939    0.207909    0.756245
      6         14           0       -2.900892   -3.985649   -0.666693
 ---------------------------------------------------------------------

 SCF Done:  E(RwB97XD) =  -1736.15431716     A.U. after  116 cycles

 The electronic state is 1-A.
 Alpha  occ. eigenvalues --  -66.39638 -66.35747 -66.35521 -66.35011 -66.33826
 Alpha  occ. eigenvalues --  -66.31499  -5.49405  -5.45488  -5.45393  -5.44960
 Alpha  occ. eigenvalues --   -5.43592  -5.41175  -3.84268  -3.84235  -3.82794
 Alpha  occ. eigenvalues --   -3.80394  -3.80394  -3.80082  -3.80010  -3.79865
 Alpha  occ. eigenvalues --   -3.79851  -3.79199  -3.78742  -3.78509  -3.78233
 Alpha  occ. eigenvalues --   -3.77904  -3.77468  -3.75670  -3.75616  -3.75349
 Alpha  occ. eigenvalues --   -0.55545  -0.53487  -0.52197  -0.51633  -0.50827
 Alpha  occ. eigenvalues --   -0.45993  -0.27475  -0.25259  -0.24233  -0.24159
 Alpha  occ. eigenvalues --   -0.23599  -0.21401
 Alpha virt. eigenvalues --   -0.09036  -0.08491  -0.06590  -0.06149  -0.06127
 Alpha virt. eigenvalues --   -0.05857  -0.05531  -0.04908  -0.03117  -0.01813
 Alpha virt. eigenvalues --    0.01328   0.02508   0.04088   0.04809   0.05181

 Mulliken charges:
               1
     1  Si   0.003713
     2  Si  -0.004876
     3  Si  -0.136179
     4  Si   0.153552
     5  Si   0.013798
     6  Si  -0.030007
 Sum of Mulliken charges =  -0.00000

 Dipole moment (field-independent basis, Debye):
    X=              2.4775    Y=              3.8163    Z=              0.6745  Tot=              4.5997
 Quadrupole moment (field-independent basis, Debye-Ang):
   XX=            -92.3248   YY=            -84.9286   ZZ=            -80.6861
   XY=             -1.1550   XZ=              2.3906   YZ=              3.0990

 Normal termination of Gaussian 16 at Sat May 18 16:21:15 2024.
