 Gaussian 16, Revision A.03,
 Gaussian 16:  ES64L-G16RevA.03 25-Dec-2016

 --------------------
 # wb97xd/aug-cc-pvtz
 --------------------

 ------
 Title5
 ------
 Symbolic Z-matrix:
 Charge =  0 Multiplicity = 1

                         Standard orientation:
 ---------------------------------------------------------------------
 Center     Atomic      Atomic             Coordinates (Angstroms)
 Number     Number       Type             X           Y           Z
 ---------------------------------------------------------------------
      1         14           0        4.636707    0.022873   -0.443428
      2         14           0       -2.425112    2.648143   -0.541272
      3         14           0       -0.229781   -1.794305    0.335074
      4         14           0        0.885075    1.526595    0.594155
      5         14           0       -1.018733    0.133654    0.478702
      6         14           0       -1.848156   -2.536960   -0.423230
 ---------------------------------------------------------------------

 SCF Done:  E(RwB97XD) =  -1736.46043805     A.U. after  102 cycles

 The electronic state is 1-A.
 Alpha  occ. eigenvalues --  -66.37300 -66.36316 -66.33750 -66.30764 -66.28371
 Alpha  occ. eigenvalues --  -66.23564  -5.46985  -5.46256  -5.43776  -5.41366
 Alpha  occ. eigenvalues --   -5.39485  -5.35704  -3.81870  -3.81240  -3.81153
 Alpha  occ. eigenvalues --   -3.81150  -3.80941  -3.79532  -3.78550  -3.78110
 Alpha  occ. eigenvalues --   -3.77740  -3.75995  -3.75719  -3.75574  -3.74106
 Alpha  occ. eigenvalues --   -3.73928  -3.73407  -3.70129  -3.70029  -3.69865
 Alpha  occ. eigenvalues --   -0.67788  -0.58893  -0.53125  -0.52724  -0.47456
 Alpha  occ. eigenvalues --   -0.40236  -0.32423  -0.31660  -0.30195  -0.25664
 Alpha  occ. eigenvalues --   -0.24311  -0.23276
 Alpha virt. eigenvalues --   -0.08924  -0.06993  -0.06576  -0.06486  -0.03933
 Alpha virt. eigenvalues --   -0.02849  -0.01492  -0.00260   0.03709   0.04062
 Alpha virt. eigenvalues --    0.04163   0.04984   0.05683   0.06013   0.06294

 Mulliken charges:
               1
     1  Si   0.056283
     2  Si   0.060351
     3  Si  -0.173929
     4  Si  -0.000721
     5  Si   0.167154
     6  Si  -0.109137
 Sum of Mulliken charges =  -0.00000

 Dipole moment (field-independent basis, Debye):
    X=              1.2860    Y=              2.6800    Z=             -0.5314  Tot=              3.0197
 Quadrupole moment (field-independent basis, Debye-Ang):
   XX=            -81.6057   YY=            -79.0776   ZZ=            -78.0293
   XY=             -5.4515   XZ=              0.0305   YZ=              2.2077

 Normal termination of Gaussian 16 at Sat May 18 21:19:51 2024.
