 Gaussian 16, Revision A.03,
 Gaussian 16:  ES64L-G16RevA.03 25-Dec-2016

 --------------------
 # wb97xd/aug-cc-pvtz
 --------------------

 ------
 Title1
 ------
 Symbolic Z-matrix:
 Charge =  0 Multiplicity = 2

                         Standard orientation:
 ---------------------------------------------------------------------
 Center     Atomic      Atomic             Coordinates (Angstroms)
 Number     Number       Type             X           Y           Z
 ---------------------------------------------------------------------
      1          1           0        5.020254   -0.677155   -0.000000
      2          1           0       -5.020254   -3.556652   -0.000000
      3          1           0       -0.000000    4.233807    0.000000
 ---------------------------------------------------------------------

 SCF Done:  E(UwB97XD) =  -1.50840884489     A.U. after   16 cycles

 The electronic state is 2-A'.
 Alpha  occ. eigenvalues --   -0.40625  -0.40625
 Alpha virt. eigenvalues --    0.05225   0.05614   0.13470   0.19395   0.19395
 Alpha virt. eigenvalues --    0.19395   0.19396   0.19396   0.19637   0.41805
 Alpha virt. eigenvalues --    0.42098   0.50474   0.50513   0.50713   0.52256

  Beta  occ. eigenvalues --   -0.40625
  Beta virt. eigenvalues --    0.05472   0.13098   0.13433   0.19396   0.19399
  Beta virt. eigenvalues --    0.19627   0.40391   0.42025   0.44792   0.44863
  Beta virt. eigenvalues --    0.45795   0.47898   0.49213   0.49224   0.49989

 Mulliken charges and spin densities:
               1          2
     1  H    0.000000   1.000030
     2  H    0.000000   1.000001
     3  H   -0.000000  -1.000031
 Sum of Mulliken charges =  -0.00000   1.00000

 Dipole moment (field-independent basis, Debye):
    X=             -0.0000    Y=              0.0000    Z=              0.0000  Tot=              0.0000
 Quadrupole moment (field-independent basis, Debye-Ang):
   XX=             -4.2615   YY=             -4.2615   ZZ=             -4.2605
   XY=              0.0009   XZ=              0.0000   YZ=             -0.0000

 Normal termination of Gaussian 16 at Sat May 18 08:00:26 2024.
