 Gaussian 16, Revision A.03,
 Gaussian 16:  ES64L-G16RevA.03 25-Dec-2016

 --------------------
 # wb97xd/aug-cc-pvtz
 --------------------

 ------
 Title0
 ------
 Symbolic Z-matrix:
 Charge =  0 Multiplicity = 2

                         Standard orientation:
 ---------------------------------------------------------------------
 Center     Atomic      Atomic             Coordinates (Angstroms)
 Number     Number       Type             X           Y           Z
 ---------------------------------------------------------------------
      1          1           0        5.472595   -0.731689    0.000000
      2          1           0       -5.472595   -3.886575   -0.000000
      3          1           0       -0.000000    4.618264   -0.000000
 ---------------------------------------------------------------------

 SCF Done:  E(UwB97XD) =  -1.50840925259     A.U. after   15 cycles

 The electronic state is 2-A'.
 Alpha  occ. eigenvalues --   -0.40625  -0.40625
 Alpha virt. eigenvalues --    0.05283   0.05474   0.13498   0.19395   0.19395
 Alpha virt. eigenvalues --    0.19395   0.19395   0.19396   0.19488   0.41847
 Alpha virt. eigenvalues --    0.41997   0.49699   0.49721   0.50234   0.50738

  Beta  occ. eigenvalues --   -0.40625
  Beta virt. eigenvalues --    0.05395   0.12227   0.13404   0.19395   0.19396
  Beta virt. eigenvalues --    0.19485   0.29249   0.39483   0.39526   0.39530
  Beta virt. eigenvalues --    0.41954   0.45877   0.48227   0.48265   0.49271

 Mulliken charges and spin densities:
               1          2
     1  H    0.000000   1.000013
     2  H    0.000000   1.000000
     3  H   -0.000000  -1.000013
 Sum of Mulliken charges =  -0.00000   1.00000

 Dipole moment (field-independent basis, Debye):
    X=              0.0000    Y=              0.0000    Z=              0.0000  Tot=              0.0000
 Quadrupole moment (field-independent basis, Debye-Ang):
   XX=             -4.2610   YY=             -4.2610   ZZ=             -4.2605
   XY=              0.0005   XZ=             -0.0000   YZ=              0.0000

 Normal termination of Gaussian 16 at Sat May 18 08:00:22 2024.
