 Gaussian 16, Revision A.03,
 Gaussian 16:  ES64L-G16RevA.03 25-Dec-2016

 --------------------
 # wb97xd/aug-cc-pvtz
 --------------------

 ------
 Title3
 ------
 Symbolic Z-matrix:
 Charge =  0 Multiplicity = 1

                         Standard orientation:
 ---------------------------------------------------------------------
 Center     Atomic      Atomic             Coordinates (Angstroms)
 Number     Number       Type             X           Y           Z
 ---------------------------------------------------------------------
      1         14           0        5.955554    0.019193   -0.568857
      2         14           0       -3.104355    3.409195   -0.697441
      3         14           0       -0.306978   -2.303950    0.428994
      4         14           0        1.139078    1.964682    0.762921
      5         14           0       -1.306394    0.169371    0.618604
      6         14           0       -2.376905   -3.258491   -0.544221
 ---------------------------------------------------------------------

 SCF Done:  E(RwB97XD) =  -1736.32676967     A.U. after   85 cycles

 The electronic state is 1-A.
 Alpha  occ. eigenvalues --  -66.39137 -66.36217 -66.35634 -66.33055 -66.32959
 Alpha  occ. eigenvalues --  -66.27792  -5.48808  -5.46160  -5.45502  -5.42949
 Alpha  occ. eigenvalues --   -5.42812  -5.37973  -3.83632  -3.83497  -3.82392
 Alpha  occ. eigenvalues --   -3.81062  -3.81062  -3.80396  -3.80304  -3.79425
 Alpha  occ. eigenvalues --   -3.78878  -3.77755  -3.77473  -3.77433  -3.77252
 Alpha  occ. eigenvalues --   -3.76906  -3.76722  -3.72547  -3.72357  -3.72147
 Alpha  occ. eigenvalues --   -0.58421  -0.55543  -0.52741  -0.51963  -0.49749
 Alpha  occ. eigenvalues --   -0.42744  -0.29073  -0.27656  -0.24873  -0.24742
 Alpha  occ. eigenvalues --   -0.24091  -0.23451
 Alpha virt. eigenvalues --   -0.09336  -0.07961  -0.06619  -0.06559  -0.06362
 Alpha virt. eigenvalues --   -0.05799  -0.03868  -0.03631   0.00724   0.01624
 Alpha virt. eigenvalues --    0.04178   0.04248   0.04996   0.05506   0.05709

 Mulliken charges:
               1
     1  Si   0.025769
     2  Si   0.011501
     3  Si  -0.174034
     4  Si   0.223444
     5  Si  -0.124664
     6  Si   0.037983
 Sum of Mulliken charges =  -0.00000

 Dipole moment (field-independent basis, Debye):
    X=              2.3571    Y=              2.9963    Z=              0.2802  Tot=              3.8226
 Quadrupole moment (field-independent basis, Debye-Ang):
   XX=            -83.8296   YY=            -83.4172   ZZ=            -78.6286
   XY=             -0.2271   XZ=              2.2564   YZ=              1.5626

 Normal termination of Gaussian 16 at Sat May 18 18:21:24 2024.
