 Gaussian 16, Revision A.03,
 Gaussian 16:  ES64L-G16RevA.03 25-Dec-2016

 --------------------
 # wb97xd/aug-cc-pvtz
 --------------------

 ------
 Title4
 ------
 Symbolic Z-matrix:
 Charge =  0 Multiplicity = 1

                         Standard orientation:
 ---------------------------------------------------------------------
 Center     Atomic      Atomic             Coordinates (Angstroms)
 Number     Number       Type             X           Y           Z
 ---------------------------------------------------------------------
      1         14           0        5.296278    0.020812   -0.504722
      2         14           0       -2.760935    3.029085   -0.618802
      3         14           0       -0.268202   -2.050503    0.379880
      4         14           0        1.008515    1.750609    0.681445
      5         14           0       -1.167115    0.147565    0.542221
      6         14           0       -2.108541   -2.897568   -0.480022
 ---------------------------------------------------------------------

 SCF Done:  E(RwB97XD) =  -1736.41659183     A.U. after   64 cycles

 The electronic state is 1-A.
 Alpha  occ. eigenvalues --  -66.37222 -66.36618 -66.36248 -66.31843 -66.31065
 Alpha  occ. eigenvalues --  -66.25434  -5.46972  -5.46549  -5.46007  -5.41841
 Alpha  occ. eigenvalues --   -5.41447  -5.36303  -3.81799  -3.81506  -3.81447
 Alpha  occ. eigenvalues --   -3.81447  -3.80899  -3.80705  -3.80590  -3.79822
 Alpha  occ. eigenvalues --   -3.79613  -3.76531  -3.76185  -3.76179  -3.76026
 Alpha  occ. eigenvalues --   -3.76020  -3.75202  -3.70858  -3.70696  -3.70446
 Alpha  occ. eigenvalues --   -0.62230  -0.56535  -0.53044  -0.52196  -0.48835
 Alpha  occ. eigenvalues --   -0.41043  -0.30500  -0.29167  -0.27362  -0.25125
 Alpha  occ. eigenvalues --   -0.24023  -0.23367
 Alpha virt. eigenvalues --   -0.09132  -0.06887  -0.06784  -0.06492  -0.05845
 Alpha virt. eigenvalues --   -0.05524  -0.02608  -0.02211   0.02415   0.03531
 Alpha virt. eigenvalues --    0.04212   0.04876   0.05492   0.05712   0.06178

 Mulliken charges:
               1
     1  Si   0.046227
     2  Si   0.028343
     3  Si  -0.164802
     4  Si   0.197441
     5  Si  -0.117731
     6  Si   0.010522
 Sum of Mulliken charges =  -0.00000

 Dipole moment (field-independent basis, Debye):
    X=              2.3083    Y=              2.6883    Z=              0.2249  Tot=              3.5505
 Quadrupole moment (field-independent basis, Debye-Ang):
   XX=            -81.8424   YY=            -82.6231   ZZ=            -77.2136
   XY=             -2.1710   XZ=              1.7443   YZ=              1.7007

 Normal termination of Gaussian 16 at Sat May 18 19:32:15 2024.
